ITEM: TIMESTEP
0
ITEM: NUMBER OF ATOMS
64
ITEM: BOX BOUNDS pp pp pp
-1.2800000000000001e+01 1.2800000000000001e+01
-1.2800000000000001e+01 1.2800000000000001e+01
-1.2800000000000001e+01 1.2800000000000001e+01
ITEM: ATOMS id type xu yu zu quatw quati quatj quatk c_diameter[1] c_diameter[2] c_diameter[3] vx vy vz angmomx angmomy angmomz mol
1 1 -12.8 -12.8 -12.8 1 0 0 0 3.1589 3.1589 3.1589 -0.00034498 -0.00180809 -0.00142335 0 0 0 1
2 1 -6.4 -12.8 -12.8 1 0 0 0 3.1589 3.1589 3.1589 -0.0041226 0.00726907 -0.00259631 0 0 0 2
5 1 -12.8 -6.4 -12.8 1 0 0 0 3.1589 3.1589 3.1589 -0.0012392 0.00324995 0.00224428 0 0 0 5
6 1 -6.4 -6.4 -12.8 1 0 0 0 3.1589 3.1589 3.1589 -0.00191024 0.00773899 0.00113087 0 0 0 6
17 1 -12.8 -12.8 -6.4 1 0 0 0 3.1589 3.1589 3.1589 0.00157598 0.00218666 -0.00172431 0 0 0 17
18 1 -6.4 -12.8 -6.4 1 0 0 0 3.1589 3.1589 3.1589 0.00686861 -0.00129304 0.00248752 0 0 0 18
21 1 -12.8 -6.4 -6.4 1 0 0 0 3.1589 3.1589 3.1589 0.00118419 -0.000290268 -0.0009063 0 0 0 21
22 1 -6.4 -6.4 -6.4 1 0 0 0 3.1589 3.1589 3.1589 0.00205463 -0.00116075 0.00111788 0 0 0 22
3 1 0 -12.8 -12.8 1 0 0 0 3.1589 3.1589 3.1589 0.00273089 0.00358858 -0.0022503 0 0 0 3
7 1 0 -6.4 -12.8 1 0 0 0 3.1589 3.1589 3.1589 -0.0050658 -0.00225857 -0.00460439 0 0 0 7
19 1 0 -12.8 -6.4 1 0 0 0 3.1589 3.1589 3.1589 0.00137109 -0.000124466 -0.00229262 0 0 0 19
23 1 0 -6.4 -6.4 1 0 0 0 3.1589 3.1589 3.1589 -0.00206436 -0.000710758 0.00204941 0 0 0 23
4 1 6.4 -12.8 -12.8 1 0 0 0 3.1589 3.1589 3.1589 0.00221437 0.00297857 0.000741922 0 0 0 4
8 1 6.4 -6.4 -12.8 1 0 0 0 3.1589 3.1589 3.1589 0.00552197 -0.0015771 -0.000734737 0 0 0 8
20 1 6.4 -12.8 -6.4 1 0 0 0 3.1589 3.1589 3.1589 0.00174574 -0.00440724 0.00109388 0 0 0 20
24 1 6.4 -6.4 -6.4 1 0 0 0 3.1589 3.1589 3.1589 -0.0054354 0.00179941 -0.00423401 0 0 0 24
9 1 -12.8 0 -12.8 1 0 0 0 3.1589 3.1589 3.1589 -0.00193449 0.000193993 -0.001071 0 0 0 9
10 1 -6.4 0 -12.8 1 0 0 0 3.1589 3.1589 3.1589 0.00194462 -0.00341063 -0.00624123 0 0 0 10
25 1 -12.8 0 -6.4 1 0 0 0 3.1589 3.1589 3.1589 -0.00602961 -0.0026156 0.00220238 0 0 0 25
26 1 -6.4 0 -6.4 1 0 0 0 3.1589 3.1589 3.1589 -0.00243283 -0.00342201 0.00238305 0 0 0 26
11 1 0 0 -12.8 1 0 0 0 3.1589 3.1589 3.1589 0.000380121 -0.0108723 -0.000289134 0 0 0 11
27 1 0 0 -6.4 1 0 0 0 3.1589 3.1589 3.1589 0.00365321 -0.00397369 0.00349591 0 0 0 27
12 1 6.4 0 -12.8 1 0 0 0 3.1589 3.1589 3.1589 -0.000823794 -0.00469923 -0.00316584 0 0 0 12
28 1 6.4 0 -6.4 1 0 0 0 3.1589 3.1589 3.1589 0.00329065 0.00027837 -0.00368678 0 0 0 28
13 1 -12.8 6.4 -12.8 1 0 0 0 3.1589 3.1589 3.1589 -0.00132333 -0.00182116 0.00134213 0 0 0 13
14 1 -6.4 6.4 -12.8 1 0 0 0 3.1589 3.1589 3.1589 -0.00679133 0.00198153 -0.00714078 0 0 0 14
29 1 -12.8 6.4 -6.4 1 0 0 0 3.1589 3.1589 3.1589 0.00178693 -0.00281471 -0.00215373 0 0 0 29
30 1 -6.4 6.4 -6.4 1 0 0 0 3.1589 3.1589 3.1589 -0.0053098 0.00619859 -0.0016688 0 0 0 30
15 1 0 6.4 -12.8 1 0 0 0 3.1589 3.1589 3.1589 -0.00208169 0.0023075 -0.00301065 0 0 0 15
31 1 0 6.4 -6.4 1 0 0 0 3.1589 3.1589 3.1589 0.0049321 -0.00482661 0.00488023 0 0 0 31
16 1 6.4 6.4 -12.8 1 0 0 0 3.1589 3.1589 3.1589 0.00307337 -0.00213537 0.00241841 0 0 0 16
32 1 6.4 6.4 -6.4 1 0 0 0 3.1589 3.1589 3.1589 -0.00168508 -0.00177191 -0.00439837 0 0 0 32
33 1 -12.8 -12.8 0 1 0 0 0 3.1589 3.1589 3.1589 -0.00351041 -0.00157332 0.00160196 0 0 0 33
34 1 -6.4 -12.8 0 1 0 0 0 3.1589 3.1589 3.1589 0.00519461 -0.00529939 0.00785777 0 0 0 34
37 1 -12.8 -6.4 0 1 0 0 0 3.1589 3.1589 3.1589 0.000813485 0.00524863 0.00157053 0 0 0 37
38 1 -6.4 -6.4 0 1 0 0 0 3.1589 3.1589 3.1589 -0.00644775 -0.00357638 0.00897228 0 0 0 38
35 1 0 -12.8 0 1 0 0 0 3.1589 3.1589 3.1589 -0.00284424 0.00245606 -0.00613578 0 0 0 35
39 1 0 -6.4 0 1 0 0 0 3.1589 3.1589 3.1589 0.00566487 -0.00274397 0.00202772 0 0 0 39
36 1 6.4 -12.8 0 1 0 0 0 3.1589 3.1589 3.1589 -0.005094 0.00162365 0.00133349 0 0 0 36
40 1 6.4 -6.4 0 1 0 0 0 3.1589 3.1589 3.1589 -0.00285882 0.00330637 -8.05844e-05 0 0 0 40
41 1 -12.8 0 0 1 0 0 0 3.1589 3.1589 3.1589 0.0045422 0.00397079 0.0092409 0 0 0 41
42 1 -6.4 0 0 1 0 0 0 3.1589 3.1589 3.1589 0.00253583 0.00239232 0.00403518 0 0 0 42
43 1 0 0 0 1 0 0 0 3.1589 3.1589 3.1589 -0.00123632 0.00146745 0.0027601 0 0 0 43
44 1 6.4 0 0 1 0 0 0 3.1589 3.1589 3.1589 0.00397286 0.00118469 -0.000207283 0 0 0 44
45 1 -12.8 6.4 0 1 0 0 0 3.1589 3.1589 3.1589 0.00427095 0.001668 -0.00712689 0 0 0 45
46 1 -6.4 6.4 0 1 0 0 0 3.1589 3.1589 3.1589 0.00693027 -0.0040549 0.000957002 0 0 0 46
47 1 0 6.4 0 1 0 0 0 3.1589 3.1589 3.1589 0.00449802 -0.000862568 0.000528703 0 0 0 47
48 1 6.4 6.4 0 1 0 0 0 3.1589 3.1589 3.1589 -0.00487867 -0.00177556 -0.000799263 0 0 0 48
49 1 -12.8 -12.8 6.4 1 0 0 0 3.1589 3.1589 3.1589 -0.00552753 0.00214298 0.000397966 0 0 0 49
50 1 -6.4 -12.8 6.4 1 0 0 0 3.1589 3.1589 3.1589 -0.00153722 -0.00114343 -0.00563339 0 0 0 50
53 1 -12.8 -6.4 6.4 1 0 0 0 3.1589 3.1589 3.1589 0.00639512 0.00324149 -0.00575774 0 0 0 53
54 1 -6.4 -6.4 6.4 1 0 0 0 3.1589 3.1589 3.1589 -0.000337336 0.00464887 -0.00475431 0 0 0 54
51 1 0 -12.8 6.4 1 0 0 0 3.1589 3.1589 3.1589 0.00416921 0.00583963 -0.00176736 0 0 0 51
55 1 0 -6.4 6.4 1 0 0 0 3.1589 3.1589 3.1589 -0.00358816 -0.00351731 0.00154716 0 0 0 55
52 1 6.4 -12.8 6.4 1 0 0 0 3.1589 3.1589 3.1589 -0.00395163 -0.00185274 0.00804564 0 0 0 52
56 1 6.4 -6.4 6.4 1 0 0 0 3.1589 3.1589 3.1589 0.000220851 0.00149701 0.00158625 0 0 0 56
57 1 -12.8 0 6.4 1 0 0 0 3.1589 3.1589 3.1589 -0.00366991 0.00187833 -0.000196218 0 0 0 57
58 1 -6.4 0 6.4 1 0 0 0 3.1589 3.1589 3.1589 -0.00512252 0.00425334 0.00385286 0 0 0 58
59 1 0 0 6.4 1 0 0 0 3.1589 3.1589 3.1589 0.00701459 0.00158215 -0.00385778 0 0 0 59
60 1 6.4 0 6.4 1 0 0 0 3.1589 3.1589 3.1589 -0.00274352 0.000795971 -0.00143322 0 0 0 60
61 1 -12.8 6.4 6.4 1 0 0 0 3.1589 3.1589 3.1589 -0.000183654 -0.00688186 0.00265123 0 0 0 61
62 1 -6.4 6.4 6.4 1 0 0 0 3.1589 3.1589 3.1589 -0.0010528 0.00154531 -0.00150368 0 0 0 62
63 1 0 6.4 6.4 1 0 0 0 3.1589 3.1589 3.1589 0.00486691 -0.000704451 0.00689605 0 0 0 63
64 1 6.4 6.4 6.4 1 0 0 0 3.1589 3.1589 3.1589 -0.00223921 -0.000534849 -0.000604501 0 0 0 64
ITEM: TIMESTEP
5000
ITEM: NUMBER OF ATOMS
64
ITEM: BOX BOUNDS pp pp pp
-6.1076497747188769e+00 6.1076497747188769e+00
-6.1076497747188769e+00 6.1076497747188769e+00
-6.1076497747188769e+00 6.1076497747188769e+00
ITEM: ATOMS id type xu yu zu quatw quati quatj quatk c_diameter[1] c_diameter[2] c_diameter[3] vx vy vz angmomx angmomy angmomz mol
24 1 -5.53867 -12.9664 -5.12104 0.635821 0.173743 -0.495166 -0.566 3.1589 3.1589 3.1589 -0.00344786 -0.00129876 -0.00129745 0.057344 -0.000673639 -0.174709 24
35 1 -8.28558 -0.871218 -5.9188 0.474156 -0.741283 -0.390692 -0.270251 3.1589 3.1589 3.1589 -0.00740783 0.00539971 -0.00233795 -0.00500703 -0.05921 -0.0391881 35
46 1 -6.51024 8.19398 -0.935815 0.788046 -0.480572 0.141292 -0.357871 3.1589 3.1589 3.1589 0.00175925 -0.00292817 0.00284945 -0.0153908 -0.132751 -0.0706189 46
39 1 6.3624 2.19903 -2.03336 -0.218819 -0.152621 0.823898 -0.500018 3.1589 3.1589 3.1589 -0.000423323 0.00712933 0.00796762 -0.0450935 -0.106217 0.0485741 39
16 1 7.05499 -0.378065 -1.28882 0.0993516 -0.572284 0.813095 -0.0386913 3.1589 3.1589 3.1589 0.00269689 0.000909359 0.00348188 -0.0290364 0.0428405 0.156803 16
5 1 -3.92823 -4.67844 -1.65843 0.402057 -0.779263 -0.227507 -0.423485 3.1589 3.1589 3.1589 -0.00399075 -0.00205967 0.000146082 0.173951 -0.0648313 -0.03685 5
25 1 -7.89333 0.0495187 0.93908 -0.273771 0.337665 0.607539 0.664776 3.1589 3.1589 3.1589 0.00287905 0.00213385 0.000733102 -0.122924 0.106214 0.129189 25
52 1 -1.04727 -7.80391 4.4635 0.531305 0.804824 -0.219415 -0.147755 3.1589 3.1589 3.1589 0.00246185 -0.00145505 -0.0105587 -0.0532645 -0.0166927 0.0310836 52
28 1 7.80119 -5.91446 -4.10653 0.0987424 -0.414937 -0.744314 0.513882 3.1589 3.1589 3.1589 0.00355182 0.00307303 -0.00083987 -0.0484276 0.0372357 -0.0107233 28
18 1 -18.4825 -8.15567 -5.98296 0.238962 -0.828779 0.50029 -0.0757121 3.1589 3.1589 3.1589 0.00188228 0.00626869 -0.00125696 -0.00152235 -0.0303238 -0.0320669 18
47 1 -0.853188 1.84945 -1.70603 -0.967301 -0.024544 -0.159593 0.195594 3.1589 3.1589 3.1589 -0.000313924 0.00321944 0.000148311 -0.0686871 0.0147237 0.042299 47
36 1 -4.1716 -2.37943 -3.33429 -0.46767 -0.488654 -0.541302 -0.499494 3.1589 3.1589 3.1589 -0.00487788 -0.000372344 0.00344216 0.0547592 -0.0296201 -0.181308 36
19 1 0.648144 -1.54408 5.92276 -0.35834 -0.92058 -0.148453 -0.0456783 3.1589 3.1589 3.1589 -0.000807321 -0.00523164 0.00708699 -0.0127818 -0.0157888 0.0312377 19
29 1 -15.9883 1.61604 4.69027 -0.378963 0.345578 -0.759749 0.399681 3.1589 3.1589 3.1589 0.000474795 -0.001041 -0.00145274 0.0280547 0.00906223 -0.0864911 29
2 1 -2.28432 -5.65483 1.89538 -0.0158345 -0.500047 0.517766 0.693989 3.1589 3.1589 3.1589 -0.0048344 -0.00518578 -0.0029108 -0.00532791 0.092825 -0.024037 2
27 1 -0.20257 -2.70302 -2.66697 -0.518747 0.374983 -0.750329 -0.165212 3.1589 3.1589 3.1589 -0.00205187 -0.00638334 0.00409445 -0.0940639 -0.0373876 0.0110591 27
23 1 0.870885 -5.03713 -2.03851 -0.452259 0.572583 -0.647763 0.219121 3.1589 3.1589 3.1589 -0.000936459 -0.00256364 -0.000938061 -0.0563694 -0.107873 0.013899 23
17 1 -11.2525 -7.77664 0.394421 -0.340714 0.538462 0.387308 0.666307 3.1589 3.1589 3.1589 -0.00309657 -0.00303665 0.000823784 -0.0329395 -0.0478682 0.0815505 17
22 1 -2.98397 -0.483263 0.642643 0.013787 -0.0297851 0.737286 -0.674783 3.1589 3.1589 3.1589 0.0041532 -0.00160151 -0.00722904 -0.0485607 -0.0167806 0.00766505 22
55 1 -2.52487 -8.22492 -1.36899 -0.952956 -0.209121 -0.125499 -0.179982 3.1589 3.1589 3.1589 -0.000591725 -0.000806722 0.00237502 -0.0443089 0.0632641 0.161042 55
49 1 -14.1114 -1.72185 19.8023 -0.105222 -0.395134 0.889088 0.20572 3.1589 3.1589 3.1589 -0.00599392 -0.000874471 -0.003772 0.043125 0.0467391 -0.0793112 49
40 1 -1.46223 -5.69659 -0.744256 0.741093 0.398187 0.525271 -0.127746 3.1589 3.1589 3.1589 -0.00161712 0.00280675 0.00530115 0.0600929 0.0976182 0.0466768 40
4 1 4.96819 -6.5361 -3.4625 0.159899 -0.335751 -0.888147 0.269996 3.1589 3.1589 3.1589 0.00186423 -0.000695946 0.00857871 -0.176195 -0.112191 -0.0310682 4
3 1 -9.213 3.4594 -6.90592 0.0534974 -0.356661 -0.475787 0.802221 3.1589 3.1589 3.1589 -0.00697511 -0.00663131 0.00129598 -0.0137945 0.0569776 0.01932 3
56 1 -3.70392 -2.1269 5.51134 -0.0491217 -0.171171 -0.860636 -0.477067 3.1589 3.1589 3.1589 -0.000968051 0.00202332 -0.0030029 -0.0220124 -0.0388973 0.00712817 56
48 1 -2.74734 4.15896 -4.1215 0.379822 0.713187 -0.0946368 0.581501 3.1589 3.1589 3.1589 -0.000862458 -0.000560509 -0.00211601 -0.00616519 0.116848 0.0418765 48
21 1 -14.5057 -2.54179 2.33521 0.321188 -0.615365 0.520281 -0.497465 3.1589 3.1589 3.1589 0.00293245 0.00860335 -0.00121925 -0.0126908 0.109537 -0.0519651 21
1 1 -17.4392 -4.15096 -6.01783 0.750631 -0.514301 -0.403565 0.0958254 3.1589 3.1589 3.1589 0.00216464 -0.00302309 -0.00154226 -0.111204 -0.000967737 -0.0527945 1
12 1 -11.9461 2.83856 -5.84938 0.337493 -0.0542244 0.432764 -0.834191 3.1589 3.1589 3.1589 -0.00208477 0.00590764 0.00131767 -0.0694294 -0.00739993 -0.0839991 12
13 1 -11.6613 -3.0089 -8.85992 -0.253124 0.13869 -0.848327 -0.443886 3.1589 3.1589 3.1589 0.00544918 -0.000126846 -0.00288943 -0.144749 0.0469601 0.100247 13
43 1 -0.84626 -0.84735 -1.00171 -0.708342 -0.0753685 0.453387 0.535734 3.1589 3.1589 3.1589 0.00742362 -0.00171858 -0.0009835 -0.0952117 -0.105503 -0.0107899 43
33 1 -9.54147 -11.6307 8.24991 -0.0746096 0.610674 0.0648859 0.785685 3.1589 3.1589 3.1589 -0.0048478 0.0032217 -0.000324179 -0.021306 -0.0129253 -0.0575827 33
30 1 -8.78274 6.29086 -0.680893 0.958466 -0.218914 -0.129367 0.129169 3.1589 3.1589 3.1589 -6.4566e-05 -0.00312451 0.00182631 0.0757453 0.0267021 -0.00122224 30
31 1 3.62016 2.55849 1.23897 0.452418 -0.531232 0.302801 -0.64917 3.1589 3.1589 3.1589 0.000290749 -0.000476263 0.010878 -0.0202727 -0.102966 0.102389 31
51 1 3.93205 -8.81996 -1.37316 0.294213 -0.37358 0.821024 -0.315904 3.1589 3.1589 3.1589 0.000710863 -0.00122076 -0.00100476 -0.0229066 -0.0595433 -0.0641401 51
57 1 -7.40458 -1.78166 9.88653 0.286601 0.277853 -0.532749 0.746215 3.1589 3.1589 3.1589 -0.00338801 -0.00345768 -0.00391223 0.0828396 -0.0294961 0.0658536 57
62 1 -10.9852 -1.13739 13.489 0.427726 0.646526 -0.562351 -0.287776 3.1589 3.1589 3.1589 0.00292011 0.00704031 -0.000915432 0.0434593 0.0534348 0.140665 62
38 1 -10.6387 -9.45668 9.31057 -0.591914 0.517572 -0.335641 0.518751 3.1589 3.1589 3.1589 0.00206066 0.0051994 -0.00413196 0.131159 -0.0337943 -0.0581242 38
34 1 -12.4562 -6.61738 7.95115 -0.130202 0.0798216 -0.019138 0.988084 3.1589 3.1589 3.1589 -0.00200294 0.00363511 -0.00323763 0.0741583 0.160684 -0.0209298 34
15 1 -9.73832 4.95476 -4.3847 -0.580496 -0.169629 -0.459338 0.650584 3.1589 3.1589 3.1589 0.00524133 -0.000461928 -0.00829841 -0.126691 0.0394845 -0.0469433 15
26 1 -9.78805 -4.14545 -5.64599 -0.385956 0.89157 -0.211725 -0.106362 3.1589 3.1589 3.1589 -0.00104227 -0.00206466 -0.00418432 0.0274311 -0.0285457 -0.0391931 26
64 1 -4.23182 4.73232 4.65552 0.324549 0.511894 -0.501499 0.617358 3.1589 3.1589 3.1589 0.00129355 0.00106195 0.00097582 0.0263132 0.0443116 -0.0452767 64
42 1 -7.07484 1.91689 -7.49069 0.385268 -0.480009 0.120358 -0.778893 3.1589 3.1589 3.1589 -0.00406315 0.0071673 0.00442946 -0.0183722 -0.0404422 0.0506608 42
10 1 -14.1658 1.03434 -4.10529 -0.772077 -0.350372 -0.507186 0.154592 3.1589 3.1589 3.1589 -0.00601687 0.00290501 -0.000344748 0.0280943 -0.0238985 -0.0222785 10
8 1 -0.594044 -4.2309 -5.8084 0.281595 -0.348452 0.0822461 0.890237 3.1589 3.1589 3.1589 -0.00733915 0.000506068 -0.00890932 0.0380437 0.0805208 0.114112 8
7 1 -1.31172 -8.75473 -10.3603 -0.577815 0.257838 0.724115 0.274421 3.1589 3.1589 3.1589 0.0010823 -0.00243414 0.00140537 -0.111151 0.144729 0.0679267 7
53 1 -4.84667 -6.62237 1.92774 -0.101867 0.506809 -0.67286 0.529176 3.1589 3.1589 3.1589 0.00440413 -0.00568318 0.00349571 0.106756 0.0315088 -0.0244438 53
63 1 -8.12996 6.39694 5.15044 0.670535 -0.655496 -0.310469 0.155939 3.1589 3.1589 3.1589 0.000898454 -0.00528498 -0.000656903 -0.0265823 -0.0450999 0.00723555 63
59 1 -4.4964 1.81793 -4.78732 -0.185546 -0.463476 -0.620636 0.604627 3.1589 3.1589 3.1589 0.00137542 0.00170148 -0.00664573 0.0535796 0.0359555 0.058319 59
44 1 -7.45362 -3.44648 1.60383 0.0379657 0.431058 -0.395216 0.810279 3.1589 3.1589 3.1589 -0.000442818 -0.00428872 0.00535641 0.0709922 -0.0105487 -0.0226113 44
9 1 -18.4882 -8.94021 -10.0496 -0.511893 0.857536 -0.0493425 0.0127323 3.1589 3.1589 3.1589 -0.00650183 -0.000712505 -0.00845274 -0.0170431 0.0579281 0.0417618 9
6 1 -11.2846 -5.91085 -8.29772 -0.14796 -0.625761 0.765726 0.0139422 3.1589 3.1589 3.1589 -0.00499058 0.00384858 -0.00773185 0.0421451 -0.00163325 0.0573233 6
41 1 -14.7518 -4.96712 4.54066 -0.183745 -0.693179 0.696594 -0.0223067 3.1589 3.1589 3.1589 0.00151003 -0.00309453 -0.00731602 0.0011068 -0.0572545 -0.0707287 41
37 1 -7.29191 -3.82339 8.02416 -0.662191 0.733179 -0.149631 -0.0395215 3.1589 3.1589 3.1589 -0.000960902 -0.000521609 -0.00189134 -0.0281673 0.137922 -0.0200932 37
45 1 -5.7883 7.54415 -8.75007 0.519081 -0.712403 0.365709 -0.298821 3.1589 3.1589 3.1589 0.00431035 -0.000541227 -0.00287157 0.0317468 0.0715881 0.0907857 45
60 1 6.85977 -7.42893 -0.847017 -0.535874 0.281653 0.0872127 -0.791141 3.1589 3.1589 3.1589 0.00448046 0.000320943 -0.00260925 -0.0673644 -0.136206 0.0361076 60
11 1 -10.5768 3.1454 -9.36866 0.359385 -0.904274 -0.165996 0.159924 3.1589 3.1589 3.1589 0.00166322 0.00297717 -0.0025434 -0.0883462 0.0230734 0.0213761 11
32 1 3.11356 6.34098 -10.0923 -0.500944 0.698789 -0.364132 -0.357989 3.1589 3.1589 3.1589 -0.00225756 -0.00304422 0.00223798 0.00547505 -0.0355371 0.0509275 32
50 1 -16.5089 -12.91 3.26717 0.314496 0.727454 0.377598 -0.478877 3.1589 3.1589 3.1589 0.00553856 0.00183795 -0.00462494 0.0971465 -0.0110461 0.0961841 50
54 1 -12.4436 0.880105 2.37094 -0.606448 -0.0325498 -0.5797 -0.54324 3.1589 3.1589 3.1589 0.00187128 -0.00101231 -0.00363665 -0.0369622 0.0346676 -0.0251711 54
61 1 -16.239 2.20159 1.13164 0.201964 -0.726825 -0.654585 0.0495462 3.1589 3.1589 3.1589 -0.00131553 -0.00425908 -0.00235926 -0.0646545 -0.0420094 -0.129976 61
20 1 5.21031 -13.5101 -8.63244 -0.263028 0.0913044 -0.373781 0.884742 3.1589 3.1589 3.1589 0.00536956 -0.00179107 -0.00522297 -0.085257 -0.025707 -0.0365205 20
58 1 -13.1469 0.716926 5.01274 0.229017 -0.122192 0.236274 0.936373 3.1589 3.1589 3.1589 0.00170277 -0.00041176 -0.00471036 0.0486176 0.10058 -0.0558755 58
14 1 -10.0415 -1.18335 -1.77003 -0.565987 -0.577951 0.118905 -0.575755 3.1589 3.1589 3.1589 -0.00258588 0.000303743 0.00186168 -0.0537889 0.0433919 -0.0245326 14
ITEM: TIMESTEP
10000
ITEM: NUMBER OF ATOMS
64
ITEM: BOX BOUNDS pp pp pp
-6.1330229927065361e+00 6.1330229927065361e+00
-6.1330229927065361e+00 6.1330229927065361e+00
-6.1330229927065361e+00 6.1330229927065361e+00
ITEM: ATOMS id type xu yu zu quatw quati quatj quatk c_diameter[1] c_diameter[2] c_diameter[3] vx vy vz angmomx angmomy angmomz mol
24 1 -21.4554 -18.3708 -16.2539 0.279666 -0.0824945 0.589539 0.753276 3.1589 3.1589 3.1589 -0.00410995 -0.00222991 -0.00136858 -0.120595 -0.0763282 -0.0187541 24
35 1 -17.3878 -12.3546 -17.2115 -0.432971 0.5017 -0.745851 -0.0673801 3.1589 3.1589 3.1589 -0.00032084 0.00638393 -0.00714738 -0.0264804 -0.0388248 0.0700441 35
46 1 -18.8597 -3.36381 -4.55973 -0.325213 -0.264881 -0.160951 -0.893403 3.1589 3.1589 3.1589 0.00437837 -0.00219666 -0.00042898 -0.0487243 0.0572352 -0.0573296 46
39 1 -3.90519 -8.8217 -6.02589 0.693858 0.246543 0.622687 -0.264648 3.1589 3.1589 3.1589 -0.000708364 0.00657421 0.004685 0.0560869 -0.00899539 -0.0376276 39
16 1 -5.67552 -11.2673 -9.58143 0.172381 -0.312432 0.880196 -0.312932 3.1589 3.1589 3.1589 6.17218e-05 0.00593988 0.000321911 0.0733296 -0.169959 -0.0347246 16
5 1 -24.81 -10.992 -11.102 -0.492282 -0.186925 0.204638 0.825131 3.1589 3.1589 3.1589 -0.00274267 0.0069749 -0.000302411 0.0534916 -0.048941 -0.00898054 5
25 1 -23.4194 0.0615384 -7.28142 0.691727 -0.0487229 0.335883 0.637434 3.1589 3.1589 3.1589 0.00154502 0.00679955 -0.00425925 -0.0436408 -0.00939196 -0.0398564 25
52 1 -15.6567 -13.3994 -8.87484 0.957448 0.136996 -0.238478 0.0874855 3.1589 3.1589 3.1589 -0.00335419 0.000525484 0.00246961 0.0671363 0.0127923 -0.0958912 52
28 1 -10.6084 -13.9605 -13.8345 0.22665 -0.336927 0.865915 -0.292065 3.1589 3.1589 3.1589 0.00166315 -0.00164947 -0.00348095 -0.0312984 0.160695 -0.054481 28
18 1 -39.8716 -16.5802 -6.69239 0.458585 -0.571275 -0.148208 -0.664364 3.1589 3.1589 3.1589 0.00648941 -0.00232361 0.00222865 0.0401667 0.0336617 -0.116934 18
47 1 -17.3028 -4.89033 -10.4053 -0.0739521 0.241786 0.586534 -0.769447 3.1589 3.1589 3.1589 -0.00358581 0.00330033 0.00431845 0.0442371 -0.026387 -0.036302 47
36 1 -23.5662 -9.50346 -8.22197 -0.952325 0.278376 -0.0931099 0.0831598 3.1589 3.1589 3.1589 0.00321083 0.00410508 -0.00296325 -0.0413311 0.0180474 0.0774842 36
19 1 -11.894 -7.07705 1.17877 -0.166406 -0.49635 -0.383723 -0.760725 3.1589 3.1589 3.1589 0.00258184 -0.00447587 0.000574885 -0.127389 0.0228715 0.0528609 19
29 1 -29.2346 -0.349133 -1.9524 0.129479 -0.76219 0.254552 0.580951 3.1589 3.1589 3.1589 -0.00105331 0.00791033 -0.00376599 0.0474126 -0.0370748 -0.0900611 29
2 1 -18.3529 -10.3369 -3.11165 0.383449 -0.0993526 0.287843 0.871919 3.1589 3.1589 3.1589 -0.00014118 -0.00125632 0.00328568 0.0093374 -0.000269081 -0.0727294 2
27 1 -12.3766 -1.45221 -5.47327 -0.00855793 -0.417403 0.782589 0.461798 3.1589 3.1589 3.1589 0.000269649 -0.000804346 -0.00427993 -0.0613673 -0.0633668 0.0641877 27
23 1 -14.1541 -11.5347 4.69315 -0.692474 -0.253882 0.672834 0.0575991 3.1589 3.1589 3.1589 -0.00411333 -0.00027942 0.00235858 -0.0297975 0.121402 -0.0536942 23
17 1 -27.5399 -14.34 -5.25055 0.305609 -0.745515 0.589973 0.0523711 3.1589 3.1589 3.1589 -0.00275704 -0.000448517 0.00407804 -0.0168608 -0.0909596 0.0491981 17
22 1 -22.2242 -19.1723 -6.77248 0.503501 0.177236 0.817009 0.218107 3.1589 3.1589 3.1589 0.00519274 -0.00101224 -0.0022805 0.0686901 -0.0895203 -0.0852137 22
55 1 -12.8152 -22.8599 -1.75809 0.136664 -0.492162 0.404759 0.758465 3.1589 3.1589 3.1589 0.00170704 0.000677156 0.00474758 0.069803 -0.0161976 -0.00397086 55
49 1 -31.4375 -4.68262 24.4199 -0.373339 -0.184206 0.884415 -0.210942 3.1589 3.1589 3.1589 0.00164088 -0.00494146 0.00298476 -0.0416242 -0.0246743 0.0935971 49
40 1 -19.0156 -12.4882 -7.16273 -0.48065 0.450481 -0.383493 0.647283 3.1589 3.1589 3.1589 0.00272314 -0.00674705 0.00684265 -0.0251222 -0.0105112 0.113417 40
4 1 -9.22391 -15.9018 -11.5864 0.644765 0.437721 0.597502 0.188865 3.1589 3.1589 3.1589 -0.00325276 0.00484607 -0.00347891 0.00176545 -0.0073234 -0.0122318 4
3 1 -23.8515 -4.54921 -7.70438 -0.805752 -0.290619 0.504469 -0.108699 3.1589 3.1589 3.1589 -0.0085775 -0.0017489 -0.00311078 -0.00289466 -0.119849 0.0204288 3
56 1 -19.423 -7.16176 -1.31524 0.123449 -0.461318 -0.844752 -0.241537 3.1589 3.1589 3.1589 -0.0054601 -0.00563371 -0.00693139 -0.026077 0.0548024 0.0593221 56
48 1 -20.8372 -7.21065 -10.5526 -0.911693 -0.205578 -0.10386 0.340244 3.1589 3.1589 3.1589 -0.00133703 -0.00398901 0.00100411 0.0337843 -0.0038776 -0.011661 48
21 1 -26.824 0.0127861 -3.08091 -0.194129 0.819298 -0.397366 -0.364917 3.1589 3.1589 3.1589 -0.0033667 -0.000263789 0.00190505 0.0463961 0.0781161 0.133124 21
1 1 -27.6256 -10.7601 -12.4197 -0.236753 -0.82195 -0.13733 -0.499487 3.1589 3.1589 3.1589 -0.0050757 -0.0031966 -0.00245626 0.0914818 0.0774123 0.0590126 1
12 1 -23.6536 -4.86206 -12.7744 -0.395856 -0.844198 -0.342581 -0.11518 3.1589 3.1589 3.1589 -0.000277868 0.00136044 -0.00426084 -0.0652034 -0.0310881 0.0641129 12
13 1 -26.3 -6.33378 -5.64179 0.539652 0.83034 -0.054655 -0.127769 3.1589 3.1589 3.1589 0.00278849 0.00481412 0.000802291 -0.0618545 -0.00442524 -0.0623218 13
43 1 -20.6224 -10.9114 -9.63325 -0.1557 0.172559 -0.964365 -0.12642 3.1589 3.1589 3.1589 0.00221071 -0.00267619 0.00236363 -0.00262149 0.0749068 -0.032391 43
33 1 -20.9338 -25.4537 0.738861 -0.659833 -0.0145476 -0.575718 -0.482657 3.1589 3.1589 3.1589 0.0103959 0.00672991 -0.0025873 0.0176972 -0.0367508 -0.00960054 33
30 1 -23.0899 3.94074 -2.86676 0.214132 0.604136 -0.358188 0.678873 3.1589 3.1589 3.1589 -0.000355202 -0.00293616 -0.000994214 -0.106892 0.0902214 -0.0649351 30
31 1 -3.81428 -6.59525 -4.00426 -0.43064 0.151813 -0.392056 -0.79862 3.1589 3.1589 3.1589 -2.464e-05 -0.000326487 0.00536295 -0.124792 0.065466 0.0750871 31
51 1 -8.69263 -15.6685 -2.81605 0.663436 0.233046 0.082377 0.706227 3.1589 3.1589 3.1589 0.00249214 -0.00332742 0.00261945 0.033816 0.0216876 0.00446458 51
57 1 -22.0204 -13.9663 3.25422 0.190293 0.287939 0.75799 0.553472 3.1589 3.1589 3.1589 -0.00434457 -0.00304983 -0.00357516 0.00850654 -0.0011239 0.0176636 57
62 1 -22.433 -11.2286 11.2316 -0.745635 0.643072 -0.0944524 -0.146851 3.1589 3.1589 3.1589 0.0022235 0.00231887 0.00192186 0.0193801 -0.0152023 -0.0197749 62
38 1 -17.9432 -20.5728 3.74462 -0.743989 -0.200916 -0.412363 -0.485871 3.1589 3.1589 3.1589 0.00236109 -0.00254371 -0.00423309 -0.0460971 -0.002012 0.0660598 38
34 1 -26.3509 -16.0815 3.24737 0.535528 -0.143396 -0.520861 0.649116 3.1589 3.1589 3.1589 -0.00561021 0.00203848 0.00276542 0.0893771 0.0612002 -0.00668892 34
15 1 -24.0656 3.06445 -5.2151 -0.339024 0.8621 0.0293869 -0.375477 3.1589 3.1589 3.1589 -0.000986443 0.00437982 -0.0007419 0.105236 0.1037 -0.0360752 15
26 1 -27.6889 -4.56132 -14.3895 -0.481832 0.746559 0.443012 -0.119283 3.1589 3.1589 3.1589 -0.00212191 -0.000597036 -0.00142027 -0.0308876 0.0212894 0.0954503 26
64 1 -24.3091 -6.02952 -3.12138 -0.547458 -0.553116 0.265551 0.569065 3.1589 3.1589 3.1589 0.000236185 -0.00124596 -0.00126087 0.16683 0.0265796 0.052209 64
42 1 -14.9351 -5.63149 -11.8848 -0.288486 0.631002 0.379887 -0.611799 3.1589 3.1589 3.1589 0.00149727 0.00115951 0.00218104 -0.0439828 0.0554898 0.0783194 42
10 1 -23.337 -3.5915 -4.86149 -0.192471 -0.605529 0.759807 -0.137779 3.1589 3.1589 3.1589 0.00256737 0.00269175 -0.00630876 -0.0154544 0.0371772 -0.0737992 10
8 1 -12.9226 -7.3187 -8.77326 -0.889636 -0.360493 0.0305172 -0.278678 3.1589 3.1589 3.1589 -0.000656501 -0.000549048 0.00571724 -0.00162129 0.0281349 0.0472867 8
7 1 -14.4292 -20.4564 -11.5081 -0.446432 -0.038538 -0.231674 0.863447 3.1589 3.1589 3.1589 0.0012881 0.00127236 0.00490983 0.120816 -0.0234126 -0.0405801 7
53 1 -17.8398 -15.3533 -1.99824 0.0156649 0.395221 0.506727 -0.766018 3.1589 3.1589 3.1589 0.00268713 0.000567618 0.00918951 0.140262 0.171987 -0.0102136 53
63 1 -21.2336 -4.76458 3.11152 -0.862152 -0.489094 0.0796286 -0.105551 3.1589 3.1589 3.1589 0.0038903 -0.000411619 0.00228478 -0.0564913 0.123548 0.0479914 63
59 1 -18.5064 -2.33272 -9.12315 0.72518 -0.499493 -0.104891 -0.462188 3.1589 3.1589 3.1589 -0.00244766 0.00139919 -0.00337601 -0.0279883 -0.146482 -0.0334951 59
44 1 -25.4994 -15.4566 -2.12541 0.205116 0.27119 0.670819 0.659079 3.1589 3.1589 3.1589 -0.00404558 0.00273292 0.00528212 0.130768 0.16105 -0.0494262 44
9 1 -30.554 -13.6879 -11.7186 0.24317 -0.904505 0.350319 -0.00390172 3.1589 3.1589 3.1589 0.000869714 0.000891263 0.00290523 -0.054447 -0.00405023 -0.0256505 9
6 1 -26.636 -10.4344 -17.2837 -0.364567 -0.721734 0.528617 -0.258373 3.1589 3.1589 3.1589 -0.00303332 0.00581595 0.00285205 0.092531 0.0192766 0.0741313 6
41 1 -27.7536 -8.97386 3.22539 -0.243446 -0.248094 0.781064 -0.51877 3.1589 3.1589 3.1589 -0.000194148 -0.00232626 -0.000620264 0.0514235 0.0229432 -0.0750401 41
37 1 -26.7054 -14.1029 0.320066 0.0907234 -0.268917 -0.787173 -0.54755 3.1589 3.1589 3.1589 0.00368008 0.00544594 -0.00315216 -0.0565331 0.00147809 -0.0369597 37
45 1 -20.5887 -8.86489 -7.41598 0.610604 0.134622 0.349934 0.697557 3.1589 3.1589 3.1589 -0.0026259 -0.00471883 -0.000233507 0.0197101 -0.029254 -0.0285757 45
60 1 -6.3126 -18.2629 -5.04542 -0.103443 -0.320054 0.650546 -0.680922 3.1589 3.1589 3.1589 2.04624e-05 0.00207868 0.000486778 0.0919655 0.0213308 -0.0268342 60
11 1 -20.9651 -3.25928 -19.0921 0.103674 0.0582949 -0.641269 -0.758041 3.1589 3.1589 3.1589 0.00525899 0.000132285 0.00255247 -0.00928012 0.0250218 -0.00283085 11
32 1 -11.6167 -1.34363 -23.5639 0.251767 0.580565 0.450954 -0.629442 3.1589 3.1589 3.1589 -0.00349259 0.00692778 0.00610027 0.0356584 -0.112459 -0.0183135 32
50 1 -36.0464 -24.2456 -3.6626 -0.267235 0.0161193 0.961247 -0.0657979 3.1589 3.1589 3.1589 0.00457274 -0.000276618 0.000600871 -0.100303 0.0262549 0.0659399 50
54 1 -22.4954 -9.16645 0.999486 0.462701 -0.623769 -0.627303 0.0575466 3.1589 3.1589 3.1589 0.00562924 -0.00363989 5.65782e-05 0.0886606 -0.063494 -0.0205603 54
61 1 -33.3702 -10.1403 -3.25521 0.570184 -0.0765038 -0.65349 0.491924 3.1589 3.1589 3.1589 -0.00381041 -0.000229836 -0.00223617 0.0812997 0.140971 0.0420763 61
20 1 -5.42475 -17.7584 -7.59058 0.720787 -0.470507 -0.477497 -0.17631 3.1589 3.1589 3.1589 -0.00729866 0.0021607 0.00119653 -0.00862739 -0.0272723 -0.0689419 20
58 1 -29.0656 -8.34488 -2.02219 0.180277 0.89095 -0.103119 0.403824 3.1589 3.1589 3.1589 -0.00279403 -0.00395376 -0.0064097 -0.0404395 -0.0234898 -0.0456941 58
14 1 -21.4411 -10.9813 -5.87305 -0.355517 0.932146 -0.0375041 0.0574834 3.1589 3.1589 3.1589 0.00543967 -0.0037561 0.00324555 0.0472823 -0.173455 0.0655176 14
ITEM: TIMESTEP
15000
ITEM: NUMBER OF ATOMS
64
ITEM: BOX BOUNDS pp pp pp
-6.2067347765079903e+00 6.2067347765079903e+00
-6.2067347765079903e+00 6.2067347765079903e+00
-6.2067347765079903e+00 6.2067347765079903e+00
ITEM: ATOMS id type xu yu zu quatw quati quatj quatk c_diameter[1] c_diameter[2] c_diameter[3] vx vy vz angmomx angmomy angmomz mol
24 1 -11.4717 -11.5595 -15.2814 0.626021 -0.659658 0.351971 0.221507 3.1589 3.1589 3.1589 -0.000797566 -0.00288664 -0.0078428 0.107874 -0.0306976 0.019233 24
35 1 -8.22926 -11.4858 -15.462 0.391491 0.470115 0.0820004 0.786767 3.1589 3.1589 3.1589 -0.00119325 -0.00424461 -0.00183633 -0.0135512 0.0584343 -0.0476692 35
46 1 -17.4668 -0.211279 -4.61562 -0.252872 0.328909 0.132619 0.900159 3.1589 3.1589 3.1589 0.000701987 -0.00457613 -0.000174807 -0.0624198 0.0182628 -0.0392559 46
39 1 6.94414 -3.23004 5.88858 -0.544127 0.795922 -0.234647 0.123993 3.1589 3.1589 3.1589 -0.00447515 0.00213327 0.00138011 -0.0436118 0.127823 -0.137298 39
16 1 4.43148 -5.23617 -0.826513 -0.174757 0.939514 0.14121 0.258521 3.1589 3.1589 3.1589 -0.00303106 -0.00742502 0.00174007 -0.00893765 0.15143 -0.0190709 16
5 1 -15.2407 -3.4148 -12.6329 0.189564 0.332706 0.0258011 0.923421 3.1589 3.1589 3.1589 0.00334577 0.00124415 -0.00171626 -0.0818397 0.0705675 0.0701944 5
25 1 -14.4212 9.13681 -3.80172 0.652045 -0.35791 0.664997 0.0672027 3.1589 3.1589 3.1589 0.00164037 -0.00153205 0.00327098 0.00361027 -0.0415527 0.129104 25
52 1 -6.97661 -12.0934 -6.86979 -0.408835 -0.413369 -0.806853 0.104729 3.1589 3.1589 3.1589 0.00451437 0.00250825 0.000652854 0.0934731 0.0304676 0.0220265 52
28 1 -6.45553 -8.44997 -10.4989 -0.631101 0.376453 -0.310814 0.602818 3.1589 3.1589 3.1589 -0.00415167 -0.00295772 0.00387699 0.0684509 -0.0389762 0.0188956 28
18 1 -32.1666 -6.13832 3.57334 -0.309419 0.821532 -0.41458 0.239724 3.1589 3.1589 3.1589 -0.006655 0.0026681 0.00124604 -0.00184979 -0.0358292 0.0425909 18
47 1 -9.82503 -0.895699 -12.1815 0.278324 -0.439602 0.655985 0.546781 3.1589 3.1589 3.1589 0.000817227 -0.00445975 0.00770806 -0.107534 -0.0643602 -0.00520862 47
36 1 -15.8585 -4.93746 -7.68295 -0.419584 0.144998 0.476259 0.759014 3.1589 3.1589 3.1589 0.00152934 0.00854348 -0.00160878 0.0694892 0.0247396 0.0260586 36
19 1 -7.07606 -0.0280117 2.40289 0.87845 -0.33657 0.271793 0.202913 3.1589 3.1589 3.1589 -0.000774741 0.00116479 0.00665815 0.0689065 -0.0494215 -0.118479 19
29 1 -26.7603 1.13478 7.03837 -0.876202 -0.320863 -0.252227 0.256318 3.1589 3.1589 3.1589 0.00438949 0.0049382 0.00110326 0.113672 -0.0778365 -0.0662857 29
2 1 -10.4809 -3.21172 2.43265 0.662976 0.608239 -0.308729 0.308537 3.1589 3.1589 3.1589 -0.00417003 -0.00148011 -0.00156639 0.0619396 -0.0187004 -0.0213519 2